Generated by ForcePy.CGMap.py

5 atoms
2 atom types

0.000000 50.398998 xlo xhi
0.000000 50.398998 ylo yhi
0.000000 50.398998 zlo zhi

Masses

1 98.96
2 98.96

Atoms

1	1	1	0	18.601341	5.863605	41.719978
2	2	1	0	49.030365	40.241982	6.42026
3	3	1	0	40.625458	7.102573	18.628273
4	4	1	0	37.407841	16.827398	8.456863
5	5	1	0	2.355484	17.931345	17.61512
