Generated by ForcePy.CGMap.py

1000 atoms
0 bonds
0 angles
0 dihedrals
0 impropers

2 atom types
0 bond types
0 angle types
0 dihedral types
0 improper types

0.000000 50.398998 xlo xhi
0.000000 50.398998 ylo yhi
0.000000 50.398998 zlo zhi

Masses

1 98.96
2 98.96

Atoms

1	1	1	0	18.601341	5.863605	41.719978
2	2	1	0	49.030365	40.241982	6.42026
3	3	1	0	40.625458	7.102573	18.628273
4	4	1	0	37.407841	16.827398	8.456863
5	5	1	0	2.355484	17.931345	17.61512
6	6	1	0	0.936747	41.330383	27.591093
7	7	1	0	36.267326	5.93697	29.717386
8	8	1	0	11.066021	45.463902	18.700161
9	9	1	0	47.931496	3.971084	30.612047
10	10	1	0	35.663811	7.50569	33.577919
11	11	1	0	27.894011	14.430695	46.936691
12	12	1	0	19.724222	34.528698	28.003702
13	13	1	0	43.672138	14.193954	41.762558
14	14	1	0	34.500992	5.091658	13.677469
15	15	1	0	46.347729	13.897958	32.680504
16	16	1	0	7.816425	7.702417	32.599998
17	17	1	0	48.487053	26.062195	16.414938
18	18	1	0	4.144662	26.766079	29.313911
19	19	1	0	4.029696	15.829917	28.228476
20	20	1	0	16.401115	41.86776	27.0369
21	21	1	0	8.3279	13.57962	11.667322
22	22	1	0	29.735327	2.569173	17.180214
23	23	1	0	9.427696	35.17836	35.284187
24	24	1	0	45.074329	24.751518	25.463572
25	25	1	0	1.539938	19.170115	49.689137
26	26	1	0	21.214478	33.094425	48.044987
27	27	1	0	13.029355	2.626315	17.901524
28	28	1	0	34.866245	29.207457	43.228737
29	29	1	0	46.758877	39.194405	26.31093
30	30	1	0	46.775471	43.252655	35.101135
31	31	1	0	15.189774	23.408297	36.66013
32	32	1	0	48.767036	3.993691	19.732168
33	33	1	0	2.249848	23.204641	25.428055
34	34	1	0	22.867767	6.830992	40.828609
35	35	1	0	36.715111	47.873055	3.343623
36	36	1	0	8.328141	41.999374	49.116867
37	37	1	0	25.987339	39.098553	17.942192
38	38	1	0	-0.058039	38.653297	22.340548
39	39	1	0	12.892927	29.428047	0.015264
40	40	1	0	14.762906	7.587957	15.11591
41	41	1	0	13.708287	26.843317	32.970909
42	42	1	0	46.797119	36.784866	31.977871
43	43	1	0	9.828145	39.150574	16.692242
44	44	1	0	24.329082	44.573063	21.11245
45	45	1	0	39.879013	40.05682	6.176725
46	46	1	0	30.789164	17.617682	45.639435
47	47	1	0	16.605438	21.256752	49.245838
48	48	1	0	41.918198	20.643177	13.914066
49	49	1	0	24.997753	33.69582	13.591813
50	50	1	0	30.181164	26.141321	48.881001
51	51	1	0	15.13797	24.887974	45.47393
52	52	1	0	6.264671	11.704905	7.503563
53	53	1	0	33.818314	-0.780898	49.445004
54	54	1	0	5.627958	3.014787	6.29498
55	55	1	0	45.821663	46.184563	9.462644
56	56	1	0	37.025185	24.478439	51.501156
57	57	1	0	26.058352	31.146564	41.038063
58	58	1	0	15.138525	30.497644	27.891167
59	59	1	0	20.793118	4.892493	46.565155
60	60	1	0	48.641773	38.121277	2.394205
61	61	1	0	36.462357	49.999496	20.136213
62	62	1	0	29.607056	32.688377	7.023904
63	63	1	0	39.531898	16.547443	44.535023
64	64	1	0	48.535328	43.961624	24.008427
65	65	1	0	9.050986	1.07634	47.265228
66	66	1	0	21.387613	35.095329	43.75708
67	67	1	0	26.851749	4.249461	2.463661
68	68	1	0	46.781574	29.991949	31.615074
69	69	1	0	5.624377	19.673462	42.546291
70	70	1	0	44.763599	15.274615	14.019804
71	71	1	0	40.866188	10.171442	2.812787
72	72	1	0	24.903276	24.286612	15.717583
73	73	1	0	15.886569	40.340118	20.177105
74	74	1	0	26.887691	20.127361	31.860447
75	75	1	0	6.350749	16.502083	37.583035
76	76	1	0	36.119308	18.717901	31.22858
77	77	1	0	21.037048	45.796505	45.435692
78	78	1	0	49.638485	13.396088	15.880043
79	79	1	0	11.264678	36.330898	20.268753
80	80	1	0	28.093548	25.21549	25.311588
81	81	1	0	47.923256	48.871269	34.040554
82	82	1	0	43.118141	39.860458	39.00037
83	83	1	0	23.220222	17.32642	30.370224
84	84	1	0	19.843864	24.54768	35.658154
85	85	1	0	9.917109	12.342907	41.801758
86	86	1	0	19.884483	7.835394	34.404583
87	87	1	0	42.219501	17.790405	31.652611
88	88	1	0	40.419128	51.389698	44.58567
89	89	1	0	13.086496	27.348068	9.107417
90	90	1	0	50.563553	28.45113	12.971716
91	91	1	0	15.401162	37.593544	15.633039
92	92	1	0	18.441677	30.086042	1.298457
93	93	1	0	30.158051	38.70219	5.880695
94	94	1	0	36.451797	25.513451	19.670448
95	95	1	0	27.557867	4.400743	46.418243
96	96	1	0	40.099644	10.534357	40.88224
97	97	1	0	6.832777	31.026535	43.482529
98	98	1	0	36.661953	4.311557	40.858479
99	99	1	0	20.582407	1.114703	15.768528
100	100	1	0	42.763885	3.238808	32.716579
101	101	1	0	28.944227	25.297468	20.918924
102	102	1	0	46.282555	0.189172	18.514765
103	103	1	0	42.906395	26.18708	8.463854
104	104	1	0	34.48579	15.078105	26.184637
105	105	1	0	11.748909	10.054197	1.120959
106	106	1	0	47.263599	14.384193	20.313187
107	107	1	0	8.398573	27.83247	31.964605
108	108	1	0	33.543488	48.776588	34.497505
109	109	1	0	11.652107	8.291162	20.3694
110	110	1	0	47.064339	11.716261	10.882773
111	111	1	0	25.227211	44.787251	14.459412
112	112	1	0	45.767246	40.876282	20.010475
113	113	1	0	50.011108	1.604252	40.460205
114	114	1	0	18.073595	14.57528	6.515536
115	115	1	0	24.824722	30.535027	6.316914
116	116	1	0	41.231609	37.785675	10.92265
117	117	1	0	22.557812	14.241806	9.084061
118	118	1	0	39.282715	44.495411	5.185845
119	119	1	0	33.2117	38.12059	34.506035
120	120	1	0	46.116539	37.242283	11.189708
121	121	1	0	32.181053	37.438515	40.39019
122	122	1	0	42.340492	28.5548	48.048645
123	123	1	0	1.813153	33.643944	35.839706
124	124	1	0	15.821542	17.696575	39.822105
125	125	1	0	47.916351	12.77099	37.85107
126	126	1	0	8.027444	35.249367	3.829863
127	127	1	0	46.40379	35.537285	16.874878
128	128	1	0	28.629604	18.158115	49.824989
129	129	1	0	49.516846	31.915653	13.475093
130	130	1	0	31.587975	43.914257	28.611355
131	131	1	0	33.799793	45.718597	45.057701
132	132	1	0	3.872633	8.15958	36.502434
133	133	1	0	8.721225	34.173012	31.127481
134	134	1	0	39.754372	40.978325	33.057648
135	135	1	0	48.902786	28.08346	39.11425
136	136	1	0	43.64822	39.131844	15.588674
137	137	1	0	42.004944	5.740607	44.772415
138	138	1	0	47.680267	22.148447	44.602875
139	139	1	0	30.664919	28.334278	43.211609
140	140	1	0	10.483251	10.304035	6.082179
141	141	1	0	16.238544	8.666166	20.245731
142	142	1	0	37.278564	33.907822	0.349349
143	143	1	0	50.349167	39.928848	48.089809
144	144	1	0	28.176846	34.731609	25.704842
145	145	1	0	19.901642	13.722834	24.768074
146	146	1	0	38.852585	46.368023	22.248421
147	147	1	0	29.718931	15.506411	12.951392
148	148	1	0	27.176979	3.489687	9.211522
149	149	1	0	2.379861	20.268715	4.683218
150	150	1	0	30.283146	43.896011	35.49028
151	151	1	0	21.15078	32.993668	8.945461
152	152	1	0	20.241146	45.877594	36.93988
153	153	1	0	20.134834	12.637915	19.817957
154	154	1	0	46.593681	8.191966	47.879997
155	155	1	0	33.622711	46.380497	18.42923
156	156	1	0	32.927177	34.21262	23.206329
157	157	1	0	18.082159	31.671574	23.982412
158	158	1	0	19.463675	19.846081	4.339414
159	159	1	0	42.116936	37.001915	0.925637
160	160	1	0	22.754786	44.613449	9.322917
161	161	1	0	6.776014	28.043232	11.042082
162	162	1	0	1.278105	19.876236	44.172089
163	163	1	0	35.085747	43.57972	32.151245
164	164	1	0	5.257001	23.985174	32.971127
165	165	1	0	20.55447	4.648321	10.838312
166	166	1	0	21.105097	50.992821	46.250565
167	167	1	0	48.333252	1.473442	0.376839
168	168	1	0	12.273571	31.301786	3.126911
169	169	1	0	46.739845	21.403503	30.590456
170	170	1	0	41.876751	43.008724	43.081356
171	171	1	0	29.868164	11.889358	28.676565
172	172	1	0	2.274674	10.057521	3.61265
173	173	1	0	44.003349	29.588974	38.873318
174	174	1	0	37.11879	8.782854	17.071161
175	175	1	0	21.933651	6.112272	28.534672
176	176	1	0	6.260983	36.681416	14.399487
177	177	1	0	28.913025	42.834297	14.787169
178	178	1	0	37.929184	21.354286	11.582752
179	179	1	0	23.703091	38.557373	40.170399
180	180	1	0	27.603539	44.936653	4.291537
181	181	1	0	44.930748	28.941286	22.456646
182	182	1	0	11.986413	31.848724	31.528423
183	183	1	0	12.157969	3.21994	24.142122
184	184	1	0	16.840302	26.341694	11.996242
185	185	1	0	6.226584	19.288544	2.459536
186	186	1	0	22.828722	16.132141	16.846462
187	187	1	0	32.60854	46.428417	6.706383
188	188	1	0	15.445082	30.173023	16.247168
189	189	1	0	17.680332	33.008717	32.673187
190	190	1	0	26.980103	34.36071	33.46463
191	191	1	0	45.004841	46.907074	43.707939
192	192	1	0	2.353483	7.241055	21.528624
193	193	1	0	20.445038	29.771854	41.215294
194	194	1	0	12.906496	21.933559	9.748687
195	195	1	0	47.77948	45.42915	30.965439
196	196	1	0	24.846062	28.734024	18.086029
197	197	1	0	42.288078	34.12722	48.156876
198	198	1	0	20.227829	46.887527	0.716351
199	199	1	0	41.65728	10.698518	11.939267
200	200	1	0	49.00547	26.055164	3.735612
201	201	1	0	32.290028	30.207733	18.982124
202	202	1	0	35.488968	20.03648	44.441181
203	203	1	0	3.378557	29.051378	38.796341
204	204	1	0	5.09644	2.601896	49.468422
205	205	1	0	50.657497	33.615948	45.604149
206	206	1	0	20.956762	24.921921	4.619932
207	207	1	0	17.780508	18.90353	34.474487
208	208	1	0	3.632375	5.413349	29.250366
209	209	1	0	24.149828	44.930557	50.669514
210	210	1	0	10.644337	3.903489	44.842743
211	211	1	0	8.869072	13.585458	29.138496
212	212	1	0	25.934345	-0.310423	15.413703
213	213	1	0	39.993507	23.51955	32.303749
214	214	1	0	2.787418	11.37291	11.843337
215	215	1	0	31.949909	10.891253	6.26416
216	216	1	0	17.377296	36.937321	46.769405
217	217	1	0	23.522377	3.991267	50.429733
218	218	1	0	10.845288	32.662182	8.240915
219	219	1	0	10.657687	42.510319	38.806953
220	220	1	0	35.828568	26.96286	33.190338
221	221	1	0	19.044975	35.767609	14.829148
222	222	1	0	24.740475	36.978222	28.043701
223	223	1	0	7.125731	7.615299	24.07011
224	224	1	0	20.075033	31.734478	14.475464
225	225	1	0	23.910753	20.552261	50.384922
226	226	1	0	36.617386	38.687134	3.646368
227	227	1	0	21.189993	16.693161	38.115021
228	228	1	0	0.200186	7.764025	25.474823
229	229	1	0	33.251152	42.824226	2.957905
230	230	1	0	33.274525	27.395227	25.126282
231	231	1	0	2.094946	9.450801	47.700306
232	232	1	0	8.879198	13.11544	35.656521
233	233	1	0	42.607056	45.806053	33.683525
234	234	1	0	21.401321	43.439594	41.448536
235	235	1	0	31.932392	42.721142	40.211884
236	236	1	0	22.877892	38.725384	34.304832
237	237	1	0	2.787666	13.679249	-1.056154
238	238	1	0	7.901499	24.31477	8.271114
239	239	1	0	9.815708	14.86001	4.580001
240	240	1	0	14.309761	24.461439	17.993633
241	241	1	0	9.682283	27.428917	25.961769
242	242	1	0	47.174488	0.56373	23.673725
243	243	1	0	17.148642	35.553226	0.654464
244	244	1	0	38.386406	37.650803	16.752108
245	245	1	0	45.296268	48.898006	39.614025
246	246	1	0	45.074844	24.54878	12.591892
247	247	1	0	5.52536	30.082357	5.972892
248	248	1	0	26.907982	15.312901	32.631226
249	249	1	0	6.803495	0.483797	27.225658
250	250	1	0	45.448147	41.177631	10.367996
251	251	1	0	29.681534	39.438198	26.021955
252	252	1	0	9.864585	21.720474	21.677721
253	253	1	0	26.840971	8.805614	30.0474
254	254	1	0	2.508297	12.481403	40.073872
255	255	1	0	14.913361	32.882996	48.596535
256	256	1	0	1.811952	24.444397	36.910912
257	257	1	0	0.752855	5.110013	48.015423
258	258	1	0	22.76848	14.95224	3.778965
259	259	1	0	4.642947	7.776967	13.135747
260	260	1	0	2.613845	20.51572	29.805988
261	261	1	0	4.002148	43.400444	22.561453
262	262	1	0	4.091172	22.074669	14.563017
263	263	1	0	26.948879	36.404724	50.385605
264	264	1	0	22.699738	15.281479	27.091932
265	265	1	0	34.262066	48.361393	26.410273
266	266	1	0	9.52312	22.529154	43.980423
267	267	1	0	17.90646	2.737682	-0.34595
268	268	1	0	3.517614	45.723644	27.364323
269	269	1	0	31.407948	49.745041	21.755844
270	270	1	0	7.421968	29.917143	20.438103
271	271	1	0	25.567265	6.208126	25.047119
272	272	1	0	28.31608	40.413723	42.145096
273	273	1	0	13.989153	43.084969	5.114138
274	274	1	0	42.158031	33.323475	32.36013
275	275	1	0	11.158052	28.847706	39.723663
276	276	1	0	49.201607	48.831821	44.832836
277	277	1	0	39.211544	27.003115	13.776788
278	278	1	0	41.094032	20.866066	7.15749
279	279	1	0	4.84954	5.405724	17.591059
280	280	1	0	1.957751	17.323206	22.164019
281	281	1	0	7.855803	23.442438	28.540861
282	282	1	0	8.572827	47.368778	36.798691
283	283	1	0	11.372355	34.546127	15.605668
284	284	1	0	0.499284	22.365311	34.061607
285	285	1	0	18.108303	13.449592	35.025257
286	286	1	0	41.180099	12.262136	6.95472
287	287	1	0	14.379436	23.459646	23.603203
288	288	1	0	47.819382	45.524868	49.156471
289	289	1	0	34.137859	24.565413	40.326504
290	290	1	0	2.783151	24.456223	1.00721
291	291	1	0	32.074257	14.014591	8.80588
292	292	1	0	16.607151	25.516132	4.166272
293	293	1	0	45.913719	8.701025	19.766701
294	294	1	0	39.637558	22.633904	46.920143
295	295	1	0	26.375027	45.921257	31.575974
296	296	1	0	16.408075	34.015854	18.906061
297	297	1	0	35.810207	4.694105	20.138832
298	298	1	0	38.621765	2.102086	8.543466
299	299	1	0	33.04668	39.681442	17.205387
300	300	1	0	41.91716	33.362381	14.418364
301	301	1	0	10.714775	18.005081	13.212044
302	302	1	0	3.055432	2.341338	21.844454
303	303	1	0	4.180808	37.66399	39.157196
304	304	1	0	24.317478	27.901237	22.806828
305	305	1	0	8.199927	24.590437	13.690931
306	306	1	0	8.824363	41.157642	45.26152
307	307	1	0	5.593765	43.635132	2.30874
308	308	1	0	28.356583	42.55386	10.267689
309	309	1	0	21.254608	42.674347	32.246937
310	310	1	0	47.807308	37.939407	37.295132
311	311	1	0	26.319941	40.93758	32.019569
312	312	1	0	38.598259	46.796783	29.909367
313	313	1	0	19.1838	42.42514	5.718396
314	314	1	0	16.264067	6.523919	4.459325
315	315	1	0	15.84629	0.022898	2.415104
316	316	1	0	40.221668	35.990295	41.852333
317	317	1	0	13.650781	19.26523	43.330215
318	318	1	0	7.327877	4.046576	26.688946
319	319	1	0	43.901134	24.386593	17.794825
320	320	1	0	23.856485	27.433527	28.283806
321	321	1	0	48.835678	37.063702	42.513767
322	322	1	0	24.230082	10.965124	22.832937
323	323	1	0	33.734646	44.620605	23.20776
324	324	1	0	28.758852	48.369728	0.800534
325	325	1	0	37.54306	46.765617	10.252163
326	326	1	0	2.282689	18.404762	38.219948
327	327	1	0	19.213266	46.103394	26.347315
328	328	1	0	27.152294	36.454964	38.780724
329	329	1	0	10.351002	34.403191	40.815197
330	330	1	0	4.782071	11.356358	45.066429
331	331	1	0	41.968903	47.764736	13.703528
332	332	1	0	30.411423	50.820271	44.324844
333	333	1	0	18.353331	9.096067	6.42791
334	334	1	0	5.815463	21.55785	36.816196
335	335	1	0	40.258289	26.42701	21.963747
336	336	1	0	42.225647	34.847393	25.681831
337	337	1	0	28.463705	19.61038	35.884598
338	338	1	0	33.398186	34.506107	14.539957
339	339	1	0	20.379196	38.983887	28.485186
340	340	1	0	37.303127	43.274651	26.587885
341	341	1	0	6.159592	40.184555	9.185185
342	342	1	0	41.703991	36.305519	35.515495
343	343	1	0	46.488129	19.444687	10.158473
344	344	1	0	10.914892	26.455032	3.680984
345	345	1	0	7.956915	18.501827	32.606865
346	346	1	0	11.15941	9.254396	46.061512
347	347	1	0	35.6306	5.909338	48.019463
348	348	1	0	43.733601	3.496912	10.231691
349	349	1	0	23.022266	9.291915	5.124521
350	350	1	0	34.641994	28.888592	1.492912
351	351	1	0	3.029219	-0.914095	6.513975
352	352	1	0	44.470669	43.116455	1.78107
353	353	1	0	21.616905	35.303379	39.468216
354	354	1	0	31.017479	2.905873	49.644814
355	355	1	0	28.766954	10.524988	45.075451
356	356	1	0	13.05064	36.99118	40.528397
357	357	1	0	32.803684	32.459518	27.743757
358	358	1	0	50.928627	8.641333	7.488317
359	359	1	0	7.53386	27.206745	37.654472
360	360	1	0	11.131565	45.779671	2.588435
361	361	1	0	39.584976	19.733049	20.03134
362	362	1	0	28.752304	50.302788	35.142128
363	363	1	0	37.076691	9.473837	44.437523
364	364	1	0	47.570877	31.240892	47.109383
365	365	1	0	42.450447	43.824776	37.875584
366	366	1	0	3.687973	32.257759	10.361767
367	367	1	0	12.757399	47.15263	43.541779
368	368	1	0	43.126408	43.895092	23.771988
369	369	1	0	26.59827	12.268256	6.725306
370	370	1	0	23.468544	10.163506	-0.347175
371	371	1	0	33.013088	31.810448	10.421471
372	372	1	0	5.557001	43.071442	17.671181
373	373	1	0	11.504277	23.846769	39.528839
374	374	1	0	15.556677	31.916189	11.008913
375	375	1	0	16.66029	1.925285	13.948648
376	376	1	0	11.304325	47.545219	23.928364
377	377	1	0	0.868471	39.503567	11.509465
378	378	1	0	21.700905	7.176766	20.550158
379	379	1	0	31.757336	13.939898	16.931681
380	380	1	0	33.90522	43.681141	12.897398
381	381	1	0	38.836292	28.585941	3.222474
382	382	1	0	41.880627	31.534864	2.492614
383	383	1	0	-0.768771	44.114212	13.677231
384	384	1	0	32.857254	22.593281	23.323
385	385	1	0	41.04845	6.725192	35.614025
386	386	1	0	17.395315	3.511511	18.45944
387	387	1	0	23.565004	29.424496	32.564415
388	388	1	0	29.200157	46.447311	25.250099
389	389	1	0	15.406239	18.841999	21.168612
390	390	1	0	36.954285	35.711464	32.284203
391	391	1	0	13.694123	31.972235	36.402782
392	392	1	0	36.426449	38.923073	39.708263
393	393	1	0	26.531981	50.110634	20.465115
394	394	1	0	33.91898	-0.593987	15.272169
395	395	1	0	44.05188	23.5303	36.013496
396	396	1	0	2.667674	0.153547	47.834236
397	397	1	0	1.071576	16.927246	13.142771
398	398	1	0	42.620209	11.157276	45.91074
399	399	1	0	20.553951	39.060326	18.990303
400	400	1	0	8.146296	4.347615	38.842072
401	401	1	0	24.700773	15.948479	36.136822
402	402	1	0	49.191864	8.483811	29.493614
403	403	1	0	24.918823	19.631924	17.167181
404	404	1	0	11.848022	19.671846	34.217083
405	405	1	0	29.914629	37.020248	15.680251
406	406	1	0	12.707673	32.133396	23.484781
407	407	1	0	38.759121	0.629941	30.268272
408	408	1	0	38.115761	31.668026	16.698648
409	409	1	0	47.916389	7.477803	37.729679
410	410	1	0	39.922028	46.960838	43.542839
411	411	1	0	23.577423	28.646954	1.975863
412	412	1	0	46.606339	48.516289	27.933014
413	413	1	0	47.887917	13.816057	47.529335
414	414	1	0	18.983099	7.60621	0.783526
415	415	1	0	11.464082	46.489925	28.330364
416	416	1	0	0.486483	33.199623	24.345484
417	417	1	0	4.392245	3.183004	43.029572
418	418	1	0	25.912296	44.908852	45.852791
419	419	1	0	27.568062	6.062544	19.369598
420	420	1	0	30.079945	48.906731	12.20801
421	421	1	0	8.221581	1.890271	21.540192
422	422	1	0	12.850872	17.300156	17.052393
423	423	1	0	5.350627	15.660221	8.62635
424	424	1	0	40.864143	42.667919	17.975857
425	425	1	0	3.661961	48.096424	43.581776
426	426	1	0	6.469314	48.506783	32.159683
427	427	1	0	45.92305	25.248974	33.245918
428	428	1	0	29.580128	38.494965	47.518173
429	429	1	0	19.489346	28.100525	8.602509
430	430	1	0	21.627468	11.549672	31.698696
431	431	1	0	0.401172	36.979675	16.450687
432	432	1	0	26.962345	10.44949	39.554924
433	433	1	0	39.18264	26.229336	28.380253
434	434	1	0	39.064262	29.857874	36.086327
435	435	1	0	1.620695	31.954102	4.771239
436	436	1	0	7.249213	46.842686	50.225407
437	437	1	0	19.743647	11.407498	41.185234
438	438	1	0	7.27639	6.877677	46.752815
439	439	1	0	50.085407	11.479521	21.2656
440	440	1	0	31.499763	7.66499	38.061188
441	441	1	0	1.043455	44.956318	34.04908
442	442	1	0	25.999386	31.84799	20.013302
443	443	1	0	38.380585	40.487442	36.816727
444	444	1	0	45.412842	47.30328	21.834591
445	445	1	0	4.793563	37.834572	23.424818
446	446	1	0	30.537197	24.56879	8.20314
447	447	1	0	13.828844	15.298995	32.941254
448	448	1	0	22.609962	20.504631	12.085747
449	449	1	0	6.601984	7.093284	1.631995
450	450	1	0	31.48424	19.446392	28.654728
451	451	1	0	31.546581	5.995102	22.174519
452	452	1	0	3.996293	12.482168	22.498112
453	453	1	0	18.077585	12.670824	14.823908
454	454	1	0	44.075966	36.653961	45.229164
455	455	1	0	26.085358	2.301429	27.34746
456	456	1	0	36.069614	9.541269	37.87117
457	457	1	0	8.604458	34.081493	22.65852
458	458	1	0	15.067491	5.635232	28.89126
459	459	1	0	22.979481	33.838097	34.010963
460	460	1	0	41.489349	4.913812	26.809175
461	461	1	0	9.750952	31.804115	11.952961
462	462	1	0	26.510885	8.533757	13.676158
463	463	1	0	22.34399	3.80541	6.218123
464	464	1	0	45.219044	10.979443	15.797214
465	465	1	0	6.776536	18.631573	12.18285
466	466	1	0	16.852606	36.130676	36.184311
467	467	1	0	46.443726	41.08913	41.014614
468	468	1	0	38.950066	29.546436	40.379166
469	469	1	0	33.685516	14.406958	33.033554
470	470	1	0	12.640018	10.248671	30.646917
471	471	1	0	15.74198	46.808372	46.421997
472	472	1	0	3.245357	32.101135	29.276428
473	473	1	0	5.193682	36.894421	18.601471
474	474	1	0	39.419811	17.790588	24.563961
475	475	1	0	32.976112	10.316971	42.692875
476	476	1	0	42.126549	49.113998	7.271498
477	477	1	0	15.303698	45.831547	14.272055
478	478	1	0	9.926152	44.026222	32.982292
479	479	1	0	12.280422	18.070763	24.85598
480	480	1	0	46.922707	3.456537	5.949673
481	481	1	0	8.561618	8.243892	17.001738
482	482	1	0	29.130754	10.2153	22.09103
483	483	1	0	26.230625	50.652733	4.501302
484	484	1	0	6.76769	43.412872	26.75172
485	485	1	0	11.280037	1.073989	36.232655
486	486	1	0	31.838415	24.247181	17.076214
487	487	1	0	44.968468	37.437229	5.714027
488	488	1	0	31.307602	36.897831	10.425525
489	489	1	0	44.072823	5.717631	16.51853
490	490	1	0	11.460358	3.552708	11.039141
491	491	1	0	21.090631	46.924644	12.430796
492	492	1	0	8.805679	12.390522	19.445179
493	493	1	0	33.635513	33.31778	33.733322
494	494	1	0	26.061752	23.233025	46.697945
495	495	1	0	13.196386	41.63921	14.966821
496	496	1	0	25.345343	4.500762	13.974771
497	497	1	0	16.148243	45.558887	22.027548
498	498	1	0	27.757969	10.977575	35.710739
499	499	1	0	32.831192	22.329041	-0.577945
500	500	1	0	27.442055	14.737495	27.057228
501	501	1	0	30.700882	6.330884	27.437685
502	502	1	0	31.49679	7.449335	3.324587
503	503	1	0	10.394495	8.100758	36.767555
504	504	1	0	47.139172	22.783855	6.262863
505	505	1	0	0.384404	47.453163	24.371437
506	506	1	0	35.734661	13.548426	41.287651
507	507	1	0	13.009433	1.739942	6.266675
508	508	1	0	17.565331	49.407677	33.670288
509	509	1	0	37.43124	39.934036	12.638357
510	510	1	0	9.399744	41.505341	22.334993
511	511	1	0	44.602886	14.334493	25.825264
512	512	1	0	36.497536	34.478729	38.018196
513	513	1	0	27.419422	18.050236	8.581818
514	514	1	0	13.502794	30.354824	44.157887
515	515	1	0	7.499671	31.381958	0.87311
516	516	1	0	4.506147	10.312291	17.38575
517	517	1	0	14.798664	19.684109	29.284227
518	518	1	0	2.777815	25.178104	8.423006
519	519	1	0	47.37912	7.214983	2.273042
520	520	1	0	14.829031	9.845165	36.043056
521	521	1	0	16.87253	4.400355	23.069698
522	522	1	0	10.667984	37.688217	5.94516
523	523	1	0	13.198422	45.078651	-1.131256
524	524	1	0	49.160648	3.443742	14.386711
525	525	1	0	35.471771	0.460275	44.81057
526	526	1	0	11.144341	30.404213	17.887699
527	527	1	0	18.995304	15.597199	30.40859
528	528	1	0	13.228937	22.720421	4.746526
529	529	1	0	1.750502	0.105004	31.885433
530	530	1	0	47.729691	-0.253887	9.466487
531	531	1	0	31.775291	4.509823	11.443094
532	532	1	0	45.658897	9.953456	25.24715
533	533	1	0	3.168522	49.442032	36.273518
534	534	1	0	36.12394	36.871117	7.867087
535	535	1	0	48.672997	6.852316	10.900908
536	536	1	0	14.55048	6.130681	46.739861
537	537	1	0	45.913422	34.862278	23.408108
538	538	1	0	11.305126	27.243927	14.766195
539	539	1	0	20.175791	36.838257	11.166383
540	540	1	0	8.588119	39.579876	29.402939
541	541	1	0	8.753384	39.932785	34.902637
542	542	1	0	44.327579	18.065392	38.282997
543	543	1	0	30.261196	34.013882	44.275063
544	544	1	0	24.969688	18.599796	44.611267
545	545	1	0	14.294051	41.106892	44.80196
546	546	1	0	36.614861	9.125561	5.259031
547	547	1	0	40.098457	11.919259	21.401861
548	548	1	0	40.747494	30.272425	8.987729
549	549	1	0	33.400414	2.442361	36.020012
550	550	1	0	44.641174	9.181279	34.50388
551	551	1	0	28.413555	46.303272	42.01651
552	552	1	0	23.92849	22.716597	21.948673
553	553	1	0	5.229021	48.417671	22.353668
554	554	1	0	-0.800281	10.130706	33.344788
555	555	1	0	10.96167	37.088737	45.995842
556	556	1	0	41.993256	34.245216	20.56757
557	557	1	0	42.897491	29.642477	16.989708
558	558	1	0	47.574829	2.500165	35.372208
559	559	1	0	12.445593	6.9524	41.006477
560	560	1	0	0.345881	44.65844	3.305341
561	561	1	0	-0.567487	39.256424	32.106873
562	562	1	0	48.597481	22.828636	38.919281
563	563	1	0	43.989311	34.126728	38.348942
564	564	1	0	47.874943	49.405285	4.384735
565	565	1	0	34.672916	2.886671	26.057529
566	566	1	0	41.535801	4.756341	3.251532
567	567	1	0	37.331509	22.697639	15.363988
568	568	1	0	43.261524	18.002344	-0.626878
569	569	1	0	15.501232	25.025127	49.794289
570	570	1	0	3.968458	23.222218	46.386581
571	571	1	0	-0.634581	20.541037	20.118273
572	572	1	0	26.567799	25.148663	32.147324
573	573	1	0	16.53553	33.750542	41.100082
574	574	1	0	27.712502	20.048782	22.316402
575	575	1	0	49.963165	7.17804	43.395782
576	576	1	0	21.041473	18.527594	21.34568
577	577	1	0	15.331203	48.885925	17.767262
578	578	1	0	37.23418	30.637989	23.303413
579	579	1	0	12.990054	28.011036	22.585114
580	580	1	0	33.620743	10.021002	24.217419
581	581	1	0	36.05608	12.408108	14.414939
582	582	1	0	23.337234	37.23555	21.689034
583	583	1	0	31.255236	8.928671	32.921333
584	584	1	0	18.436344	27.54245	31.307709
585	585	1	0	12.749142	15.728036	8.347051
586	586	1	0	44.564766	41.009937	31.613302
587	587	1	0	45.568245	43.432442	6.055657
588	588	1	0	14.072523	5.910149	9.363984
589	589	1	0	4.826225	49.024117	11.6504
590	590	1	0	33.861996	18.767981	39.566742
591	591	1	0	33.600163	28.270815	30.093906
592	592	1	0	6.70505	2.710478	34.014942
593	593	1	0	16.621218	15.017315	17.884809
594	594	1	0	24.592407	8.140219	8.904402
595	595	1	0	49.946308	26.081064	23.358229
596	596	1	0	9.478004	18.079626	39.233719
597	597	1	0	1.751472	5.146108	3.784224
598	598	1	0	36.394798	42.074966	20.629597
599	599	1	0	44.723782	8.653124	41.057716
600	600	1	0	22.678902	1.740305	31.934635
601	601	1	0	25.142735	26.833164	37.736553
602	602	1	0	13.14618	-0.252204	48.640739
603	603	1	0	18.507183	41.306732	13.713665
604	604	1	0	19.503963	9.146628	24.183493
605	605	1	0	33.842922	49.748074	7.885199
606	606	1	0	1.966734	49.058346	2.23212
607	607	1	0	22.700968	31.770229	24.697769
608	608	1	0	9.940889	39.145439	10.98378
609	609	1	0	2.701733	15.491314	4.630625
610	610	1	0	22.647493	2.300692	19.885326
611	611	1	0	35.209038	42.061497	7.785156
612	612	1	0	45.046574	7.869448	7.113978
613	613	1	0	5.692396	32.95813	39.697189
614	614	1	0	32.373398	13.326778	0.377808
615	615	1	0	39.901512	11.551788	32.524818
616	616	1	0	36.755547	35.093071	20.911606
617	617	1	0	20.173414	9.689131	11.559771
618	618	1	0	19.591553	6.476678	15.724041
619	619	1	0	5.171614	10.968281	28.425781
620	620	1	0	37.309406	34.803185	26.555975
621	621	1	0	1.050759	29.041059	32.458435
622	622	1	0	27.203594	22.691395	38.627335
623	623	1	0	3.645297	22.441547	20.95722
624	624	1	0	44.412697	15.664243	8.6364
625	625	1	0	26.537003	28.246613	46.493168
626	626	1	0	20.789881	17.550156	48.320358
627	627	1	0	38.437729	19.007742	2.892277
628	628	1	0	13.545914	25.649889	27.945478
629	629	1	0	9.725814	8.803375	28.316589
630	630	1	0	35.843773	3.056372	3.088191
631	631	1	0	33.009995	26.981737	5.450438
632	632	1	0	39.555077	22.653809	24.492123
633	633	1	0	35.301937	21.101227	26.883183
634	634	1	0	45.234001	26.172363	44.802223
635	635	1	0	14.122639	13.19138	38.72747
636	636	1	0	40.590672	6.614445	8.012754
637	637	1	0	10.263008	9.42544	11.935884
638	638	1	0	18.868942	19.791256	16.556822
639	639	1	0	25.402306	43.141972	27.110958
640	640	1	0	23.770187	10.173183	44.940395
641	641	1	0	14.595728	2.15052	42.728806
642	642	1	0	41.298981	12.083794	37.176384
643	643	1	0	48.962593	24.877209	29.026455
644	644	1	0	-0.977358	8.120028	15.731439
645	645	1	0	6.592281	45.571323	45.887199
646	646	1	0	21.758232	28.924324	45.44622
647	647	1	0	14.855528	17.378328	3.358223
648	648	1	0	41.84127	44.342171	27.786911
649	649	1	0	18.285929	2.730007	7.101466
650	650	1	0	6.196315	15.060858	43.57515
651	651	1	0	1.388826	40.994072	36.497055
652	652	1	0	24.235214	7.481562	34.236351
653	653	1	0	24.801086	49.286304	48.281639
654	654	1	0	5.76164	25.851133	23.389433
655	655	1	0	1.787181	16.543449	34.188354
656	656	1	0	46.689354	18.114155	34.326805
657	657	1	0	40.858902	20.895023	28.010443
658	658	1	0	13.201114	37.806877	32.674934
659	659	1	0	43.357082	2.096519	0.208501
660	660	1	0	48.879074	44.201962	44.418186
661	661	1	0	1.027899	51.328297	26.644419
662	662	1	0	32.749924	32.048035	48.225647
663	663	1	0	30.433777	24.809704	36.101227
664	664	1	0	20.911762	41.631016	24.286739
665	665	1	0	16.726614	41.263802	0.951865
666	666	1	0	31.119064	45.181366	48.452564
667	667	1	0	8.135184	-0.652127	17.398993
668	668	1	0	27.874935	9.629683	50.846382
669	669	1	0	25.60087	17.722033	40.581779
670	670	1	0	21.718319	37.585518	5.700445
671	671	1	0	10.941695	23.311918	32.816807
672	672	1	0	46.056656	34.087296	28.508148
673	673	1	0	32.638214	5.628979	43.790939
674	674	1	0	17.987492	22.298956	30.027027
675	675	1	0	38.328346	38.70026	47.239204
676	676	1	0	39.084435	19.667805	40.640114
677	677	1	0	25.034111	44.21299	37.579544
678	678	1	0	39.621044	25.857948	43.6353
679	679	1	0	36.757679	38.892303	23.737438
680	680	1	0	29.448364	48.996262	29.701927
681	681	1	0	6.747039	25.634001	3.002256
682	682	1	0	44.641998	44.27774	16.292122
683	683	1	0	5.716166	50.310768	40.129639
684	684	1	0	25.697853	19.456816	26.488798
685	685	1	0	41.782745	48.346016	17.99786
686	686	1	0	14.343823	6.674909	32.633194
687	687	1	0	13.515625	13.475256	49.12561
688	688	1	0	17.685759	18.856586	7.833961
689	689	1	0	15.307425	0.090588	28.062056
690	690	1	0	17.065565	37.497238	23.549784
691	691	1	0	44.278942	50.992905	13.510578
692	692	1	0	0.72741	45.050488	8.32727
693	693	1	0	6.268232	30.843096	33.804398
694	694	1	0	8.485454	39.14518	39.596581
695	695	1	0	18.684319	23.34256	8.97375
696	696	1	0	7.494072	32.764641	47.42252
697	697	1	0	22.606295	23.575296	30.665579
698	698	1	0	18.362322	39.256821	41.125031
699	699	1	0	31.669682	13.835725	36.657913
700	700	1	0	32.411213	40.713863	44.908695
701	701	1	0	23.249939	11.531124	36.723293
702	702	1	0	46.462322	11.521362	4.772533
703	703	1	0	30.714291	40.15041	31.156176
704	704	1	0	7.2549	13.686504	24.472427
705	705	1	0	50.082367	46.55291	39.205269
706	706	1	0	13.184444	13.888981	22.316883
707	707	1	0	37.778172	12.219629	25.300825
708	708	1	0	50.053154	14.19346	8.571842
709	709	1	0	1.394277	35.544197	-0.067937
710	710	1	0	5.599818	35.677448	44.470833
711	711	1	0	8.26632	17.512781	20.922092
712	712	1	0	25.084764	24.25211	7.293581
713	713	1	0	22.129601	46.672798	16.994331
714	714	1	0	42.659103	-0.270485	25.267067
715	715	1	0	39.272667	51.471058	49.120331
716	716	1	0	25.516651	36.297199	5.366201
717	717	1	0	47.581593	20.3897	15.761133
718	718	1	0	17.58827	9.293447	46.595215
719	719	1	0	25.011721	12.992544	12.420048
720	720	1	0	44.132835	23.405741	21.011009
721	721	1	0	10.734417	49.52401	41.698742
722	722	1	0	12.642445	47.926636	32.597588
723	723	1	0	42.81649	46.821709	1.432513
724	724	1	0	4.276974	13.176675	33.790192
725	725	1	0	9.62464	17.339355	29.103329
726	726	1	0	17.831543	13.931629	44.454151
727	727	1	0	19.318146	26.718098	16.384052
728	728	1	0	21.537764	24.758816	50.293583